ITEM: TIMESTEP
0
ITEM: NUMBER OF ATOMS
2
ITEM: BOX BOUNDS xy xz yz pp pp pp
-1.1299129338838985e+00 2.2598258677677969e+00 -1.1299129338838985e+00
0.0000000000000000e+00 1.9570656971336065e+00 0.0000000000000000e+00
0.0000000000000000e+00 3.5698785608749377e+00 0.0000000000000000e+00
ITEM: ATOMS id type x y z fx fy fz
1 1 1.75288 0.321004 2.67767 -0.0126085 -0.00732064 -0.171882
2 1 -0.62297 1.63606 0.892205 0.0104956 -0.00860369 0.102712
