LAMMPS (15 Jun 2023 - Development - f70df7834e-modified)
Total wall time: 0:00:00
